V -t * -v 1.0a5 -a 0
A -t * -n 1 -p 0 -o 0x7fffffff -c 30 -a 1
A -t * -h 1 -m 1073741823 -s 0
c -t * -i 4 -n Azure
c -t * -i 0 -n Red
c -t * -i 1 -n Green
c -t * -i 2 -n Coral
c -t * -i 3 -n Blue
n -t * -a 4 -s 4 -S UP -v circle -c black -i black
n -t * -a 0 -s 0 -S UP -v circle -c black -i black
n -t * -a 5 -s 5 -S UP -v circle -c black -i black
n -t * -a 1 -s 1 -S UP -v circle -c black -i black
n -t * -a 2 -s 2 -S UP -v circle -c black -i black
n -t * -a 3 -s 3 -S UP -v circle -c black -i black
l -t * -s 1 -d 0 -S UP -r 1000000 -D 0.01 -c black
l -t * -s 2 -d 0 -S UP -r 1000000 -D 0.01 -c black
l -t * -s 3 -d 0 -S UP -r 1000000 -D 0.01 -c black
l -t * -s 4 -d 0 -S UP -r 1000000 -D 0.01 -c black
l -t * -s 5 -d 0 -S UP -r 1000000 -D 0.01 -c black
+ -t 0.1 -s 1 -d 0 -p tcp -e 40 -c 0 -i 0 -a 0 -x {1.0 2.0 0 ------- null}
- -t 0.1 -s 1 -d 0 -p tcp -e 40 -c 0 -i 0 -a 0 -x {1.0 2.0 0 ------- null}
h -t 0.1 -s 1 -d 0 -p tcp -e 40 -c 0 -i 0 -a 0 -x {1.0 2.0 -1 ------- null}
+ -t 0.1 -s 3 -d 0 -p tcp -e 40 -c 1 -i 1 -a 1 -x {3.0 4.0 0 ------- null}
- -t 0.1 -s 3 -d 0 -p tcp -e 40 -c 1 -i 1 -a 1 -x {3.0 4.0 0 ------- null}
h -t 0.1 -s 3 -d 0 -p tcp -e 40 -c 1 -i 1 -a 1 -x {3.0 4.0 -1 ------- null}
r -t 0.11032 -s 1 -d 0 -p tcp -e 40 -c 0 -i 0 -a 0 -x {1.0 2.0 0 ------- null}
+ -t 0.11032 -s 0 -d 2 -p tcp -e 40 -c 0 -i 0 -a 0 -x {1.0 2.0 0 ------- null}
- -t 0.11032 -s 0 -d 2 -p tcp -e 40 -c 0 -i 0 -a 0 -x {1.0 2.0 0 ------- null}
h -t 0.11032 -s 0 -d 2 -p tcp -e 40 -c 0 -i 0 -a 0 -x {1.0 2.0 -1 ------- null}
r -t 0.11032 -s 3 -d 0 -p tcp -e 40 -c 1 -i 1 -a 1 -x {3.0 4.0 0 ------- null}
+ -t 0.11032 -s 0 -d 4 -p tcp -e 40 -c 1 -i 1 -a 1 -x {3.0 4.0 0 ------- null}
- -t 0.11032 -s 0 -d 4 -p tcp -e 40 -c 1 -i 1 -a 1 -x {3.0 4.0 0 ------- null}
h -t 0.11032 -s 0 -d 4 -p tcp -e 40 -c 1 -i 1 -a 1 -x {3.0 4.0 -1 ------- null}
r -t 0.12064 -s 0 -d 2 -p tcp -e 40 -c 0 -i 0 -a 0 -x {1.0 2.0 0 ------- null}
+ -t 0.12064 -s 2 -d 0 -p ack -e 40 -c 0 -i 2 -a 0 -x {2.0 1.0 0 ------- null}
- -t 0.12064 -s 2 -d 0 -p ack -e 40 -c 0 -i 2 -a 0 -x {2.0 1.0 0 ------- null}
h -t 0.12064 -s 2 -d 0 -p ack -e 40 -c 0 -i 2 -a 0 -x {2.0 1.0 -1 ------- null}
r -t 0.12064 -s 0 -d 4 -p tcp -e 40 -c 1 -i 1 -a 1 -x {3.0 4.0 0 ------- null}
+ -t 0.12064 -s 4 -d 0 -p ack -e 40 -c 1 -i 3 -a 1 -x {4.0 3.0 0 ------- null}
- -t 0.12064 -s 4 -d 0 -p ack -e 40 -c 1 -i 3 -a 1 -x {4.0 3.0 0 ------- null}
h -t 0.12064 -s 4 -d 0 -p ack -e 40 -c 1 -i 3 -a 1 -x {4.0 3.0 -1 ------- null}
r -t 0.13096 -s 2 -d 0 -p ack -e 40 -c 0 -i 2 -a 0 -x {2.0 1.0 0 ------- null}
+ -t 0.13096 -s 0 -d 1 -p ack -e 40 -c 0 -i 2 -a 0 -x {2.0 1.0 0 ------- null}
- -t 0.13096 -s 0 -d 1 -p ack -e 40 -c 0 -i 2 -a 0 -x {2.0 1.0 0 ------- null}
h -t 0.13096 -s 0 -d 1 -p ack -e 40 -c 0 -i 2 -a 0 -x {2.0 1.0 -1 ------- null}
r -t 0.13096 -s 4 -d 0 -p ack -e 40 -c 1 -i 3 -a 1 -x {4.0 3.0 0 ------- null}
+ -t 0.13096 -s 0 -d 3 -p ack -e 40 -c 1 -i 3 -a 1 -x {4.0 3.0 0 ------- null}
- -t 0.13096 -s 0 -d 3 -p ack -e 40 -c 1 -i 3 -a 1 -x {4.0 3.0 0 ------- null}
h -t 0.13096 -s 0 -d 3 -p ack -e 40 -c 1 -i 3 -a 1 -x {4.0 3.0 -1 ------- null}
r -t 0.14128 -s 0 -d 1 -p ack -e 40 -c 0 -i 2 -a 0 -x {2.0 1.0 0 ------- null}
+ -t 0.14128 -s 1 -d 0 -p tcp -e 1040 -c 0 -i 4 -a 0 -x {1.0 2.0 1 ------- null}
- -t 0.14128 -s 1 -d 0 -p tcp -e 1040 -c 0 -i 4 -a 0 -x {1.0 2.0 1 ------- null}
h -t 0.14128 -s 1 -d 0 -p tcp -e 1040 -c 0 -i 4 -a 0 -x {1.0 2.0 -1 ------- null}
+ -t 0.14128 -s 1 -d 0 -p tcp -e 1040 -c 0 -i 5 -a 0 -x {1.0 2.0 2 ------- null}
r -t 0.14128 -s 0 -d 3 -p ack -e 40 -c 1 -i 3 -a 1 -x {4.0 3.0 0 ------- null}
+ -t 0.14128 -s 3 -d 0 -p tcp -e 1040 -c 1 -i 6 -a 1 -x {3.0 4.0 1 ------- null}
- -t 0.14128 -s 3 -d 0 -p tcp -e 1040 -c 1 -i 6 -a 1 -x {3.0 4.0 1 ------- null}
h -t 0.14128 -s 3 -d 0 -p tcp -e 1040 -c 1 -i 6 -a 1 -x {3.0 4.0 -1 ------- null}
+ -t 0.14128 -s 3 -d 0 -p tcp -e 1040 -c 1 -i 7 -a 1 -x {3.0 4.0 2 ------- null}
- -t 0.1496 -s 1 -d 0 -p tcp -e 1040 -c 0 -i 5 -a 0 -x {1.0 2.0 2 ------- null}
h -t 0.1496 -s 1 -d 0 -p tcp -e 1040 -c 0 -i 5 -a 0 -x {1.0 2.0 -1 ------- null}
- -t 0.1496 -s 3 -d 0 -p tcp -e 1040 -c 1 -i 7 -a 1 -x {3.0 4.0 2 ------- null}
h -t 0.1496 -s 3 -d 0 -p tcp -e 1040 -c 1 -i 7 -a 1 -x {3.0 4.0 -1 ------- null}
r -t 0.1596 -s 1 -d 0 -p tcp -e 1040 -c 0 -i 4 -a 0 -x {1.0 2.0 1 ------- null}
+ -t 0.1596 -s 0 -d 2 -p tcp -e 1040 -c 0 -i 4 -a 0 -x {1.0 2.0 1 ------- null}
- -t 0.1596 -s 0 -d 2 -p tcp -e 1040 -c 0 -i 4 -a 0 -x {1.0 2.0 1 ------- null}
h -t 0.1596 -s 0 -d 2 -p tcp -e 1040 -c 0 -i 4 -a 0 -x {1.0 2.0 -1 ------- null}
r -t 0.1596 -s 3 -d 0 -p tcp -e 1040 -c 1 -i 6 -a 1 -x {3.0 4.0 1 ------- null}
+ -t 0.1596 -s 0 -d 4 -p tcp -e 1040 -c 1 -i 6 -a 1 -x {3.0 4.0 1 ------- null}
- -t 0.1596 -s 0 -d 4 -p tcp -e 1040 -c 1 -i 6 -a 1 -x {3.0 4.0 1 ------- null}
h -t 0.1596 -s 0 -d 4 -p tcp -e 1040 -c 1 -i 6 -a 1 -x {3.0 4.0 -1 ------- null}
r -t 0.16792 -s 1 -d 0 -p tcp -e 1040 -c 0 -i 5 -a 0 -x {1.0 2.0 2 ------- null}
+ -t 0.16792 -s 0 -d 2 -p tcp -e 1040 -c 0 -i 5 -a 0 -x {1.0 2.0 2 ------- null}
r -t 0.16792 -s 3 -d 0 -p tcp -e 1040 -c 1 -i 7 -a 1 -x {3.0 4.0 2 ------- null}
+ -t 0.16792 -s 0 -d 4 -p tcp -e 1040 -c 1 -i 7 -a 1 -x {3.0 4.0 2 ------- null}
- -t 0.16792 -s 0 -d 2 -p tcp -e 1040 -c 0 -i 5 -a 0 -x {1.0 2.0 2 ------- null}
h -t 0.16792 -s 0 -d 2 -p tcp -e 1040 -c 0 -i 5 -a 0 -x {1.0 2.0 -1 ------- null}
- -t 0.16792 -s 0 -d 4 -p tcp -e 1040 -c 1 -i 7 -a 1 -x {3.0 4.0 2 ------- null}
h -t 0.16792 -s 0 -d 4 -p tcp -e 1040 -c 1 -i 7 -a 1 -x {3.0 4.0 -1 ------- null}
r -t 0.17792 -s 0 -d 2 -p tcp -e 1040 -c 0 -i 4 -a 0 -x {1.0 2.0 1 ------- null}
+ -t 0.17792 -s 2 -d 0 -p ack -e 40 -c 0 -i 8 -a 0 -x {2.0 1.0 1 ------- null}
- -t 0.17792 -s 2 -d 0 -p ack -e 40 -c 0 -i 8 -a 0 -x {2.0 1.0 1 ------- null}
h -t 0.17792 -s 2 -d 0 -p ack -e 40 -c 0 -i 8 -a 0 -x {2.0 1.0 -1 ------- null}
r -t 0.17792 -s 0 -d 4 -p tcp -e 1040 -c 1 -i 6 -a 1 -x {3.0 4.0 1 ------- null}
+ -t 0.17792 -s 4 -d 0 -p ack -e 40 -c 1 -i 9 -a 1 -x {4.0 3.0 1 ------- null}
- -t 0.17792 -s 4 -d 0 -p ack -e 40 -c 1 -i 9 -a 1 -x {4.0 3.0 1 ------- null}
h -t 0.17792 -s 4 -d 0 -p ack -e 40 -c 1 -i 9 -a 1 -x {4.0 3.0 -1 ------- null}
r -t 0.18624 -s 0 -d 2 -p tcp -e 1040 -c 0 -i 5 -a 0 -x {1.0 2.0 2 ------- null}
+ -t 0.18624 -s 2 -d 0 -p ack -e 40 -c 0 -i 10 -a 0 -x {2.0 1.0 2 ------- null}
- -t 0.18624 -s 2 -d 0 -p ack -e 40 -c 0 -i 10 -a 0 -x {2.0 1.0 2 ------- null}
h -t 0.18624 -s 2 -d 0 -p ack -e 40 -c 0 -i 10 -a 0 -x {2.0 1.0 -1 ------- null}
r -t 0.18624 -s 0 -d 4 -p tcp -e 1040 -c 1 -i 7 -a 1 -x {3.0 4.0 2 ------- null}
+ -t 0.18624 -s 4 -d 0 -p ack -e 40 -c 1 -i 11 -a 1 -x {4.0 3.0 2 ------- null}
- -t 0.18624 -s 4 -d 0 -p ack -e 40 -c 1 -i 11 -a 1 -x {4.0 3.0 2 ------- null}
h -t 0.18624 -s 4 -d 0 -p ack -e 40 -c 1 -i 11 -a 1 -x {4.0 3.0 -1 ------- null}
r -t 0.18824 -s 2 -d 0 -p ack -e 40 -c 0 -i 8 -a 0 -x {2.0 1.0 1 ------- null}
+ -t 0.18824 -s 0 -d 1 -p ack -e 40 -c 0 -i 8 -a 0 -x {2.0 1.0 1 ------- null}
- -t 0.18824 -s 0 -d 1 -p ack -e 40 -c 0 -i 8 -a 0 -x {2.0 1.0 1 ------- null}
h -t 0.18824 -s 0 -d 1 -p ack -e 40 -c 0 -i 8 -a 0 -x {2.0 1.0 -1 ------- null}
r -t 0.18824 -s 4 -d 0 -p ack -e 40 -c 1 -i 9 -a 1 -x {4.0 3.0 1 ------- null}
+ -t 0.18824 -s 0 -d 3 -p ack -e 40 -c 1 -i 9 -a 1 -x {4.0 3.0 1 ------- null}
- -t 0.18824 -s 0 -d 3 -p ack -e 40 -c 1 -i 9 -a 1 -x {4.0 3.0 1 ------- null}
h -t 0.18824 -s 0 -d 3 -p ack -e 40 -c 1 -i 9 -a 1 -x {4.0 3.0 -1 ------- null}
r -t 0.19656 -s 2 -d 0 -p ack -e 40 -c 0 -i 10 -a 0 -x {2.0 1.0 2 ------- null}
+ -t 0.19656 -s 0 -d 1 -p ack -e 40 -c 0 -i 10 -a 0 -x {2.0 1.0 2 ------- null}
- -t 0.19656 -s 0 -d 1 -p ack -e 40 -c 0 -i 10 -a 0 -x {2.0 1.0 2 ------- null}
h -t 0.19656 -s 0 -d 1 -p ack -e 40 -c 0 -i 10 -a 0 -x {2.0 1.0 -1 ------- null}
r -t 0.19656 -s 4 -d 0 -p ack -e 40 -c 1 -i 11 -a 1 -x {4.0 3.0 2 ------- null}
+ -t 0.19656 -s 0 -d 3 -p ack -e 40 -c 1 -i 11 -a 1 -x {4.0 3.0 2 ------- null}
- -t 0.19656 -s 0 -d 3 -p ack -e 40 -c 1 -i 11 -a 1 -x {4.0 3.0 2 ------- null}
h -t 0.19656 -s 0 -d 3 -p ack -e 40 -c 1 -i 11 -a 1 -x {4.0 3.0 -1 ------- null}
r -t 0.19856 -s 0 -d 1 -p ack -e 40 -c 0 -i 8 -a 0 -x {2.0 1.0 1 ------- null}
+ -t 0.19856 -s 1 -d 0 -p tcp -e 1040 -c 0 -i 12 -a 0 -x {1.0 2.0 3 ------- null}
- -t 0.19856 -s 1 -d 0 -p tcp -e 1040 -c 0 -i 12 -a 0 -x {1.0 2.0 3 ------- null}
h -t 0.19856 -s 1 -d 0 -p tcp -e 1040 -c 0 -i 12 -a 0 -x {1.0 2.0 -1 ------- null}
+ -t 0.19856 -s 1 -d 0 -p tcp -e 1040 -c 0 -i 13 -a 0 -x {1.0 2.0 4 ------- null}
r -t 0.19856 -s 0 -d 3 -p ack -e 40 -c 1 -i 9 -a 1 -x {4.0 3.0 1 ------- null}
+ -t 0.19856 -s 3 -d 0 -p tcp -e 1040 -c 1 -i 14 -a 1 -x {3.0 4.0 3 ------- null}
- -t 0.19856 -s 3 -d 0 -p tcp -e 1040 -c 1 -i 14 -a 1 -x {3.0 4.0 3 ------- null}
h -t 0.19856 -s 3 -d 0 -p tcp -e 1040 -c 1 -i 14 -a 1 -x {3.0 4.0 -1 ------- null}
+ -t 0.19856 -s 3 -d 0 -p tcp -e 1040 -c 1 -i 15 -a 1 -x {3.0 4.0 4 ------- null}
r -t 0.20688 -s 0 -d 1 -p ack -e 40 -c 0 -i 10 -a 0 -x {2.0 1.0 2 ------- null}
+ -t 0.20688 -s 1 -d 0 -p tcp -e 1040 -c 0 -i 16 -a 0 -x {1.0 2.0 5 ------- null}
+ -t 0.20688 -s 1 -d 0 -p tcp -e 1040 -c 0 -i 17 -a 0 -x {1.0 2.0 6 ------- null}
r -t 0.20688 -s 0 -d 3 -p ack -e 40 -c 1 -i 11 -a 1 -x {4.0 3.0 2 ------- null}
+ -t 0.20688 -s 3 -d 0 -p tcp -e 1040 -c 1 -i 18 -a 1 -x {3.0 4.0 5 ------- null}
+ -t 0.20688 -s 3 -d 0 -p tcp -e 1040 -c 1 -i 19 -a 1 -x {3.0 4.0 6 ------- null}
- -t 0.20688 -s 1 -d 0 -p tcp -e 1040 -c 0 -i 13 -a 0 -x {1.0 2.0 4 ------- null}
h -t 0.20688 -s 1 -d 0 -p tcp -e 1040 -c 0 -i 13 -a 0 -x {1.0 2.0 -1 ------- null}
- -t 0.20688 -s 3 -d 0 -p tcp -e 1040 -c 1 -i 15 -a 1 -x {3.0 4.0 4 ------- null}
h -t 0.20688 -s 3 -d 0 -p tcp -e 1040 -c 1 -i 15 -a 1 -x {3.0 4.0 -1 ------- null}
- -t 0.2152 -s 1 -d 0 -p tcp -e 1040 -c 0 -i 16 -a 0 -x {1.0 2.0 5 ------- null}
h -t 0.2152 -s 1 -d 0 -p tcp -e 1040 -c 0 -i 16 -a 0 -x {1.0 2.0 -1 ------- null}
- -t 0.2152 -s 3 -d 0 -p tcp -e 1040 -c 1 -i 18 -a 1 -x {3.0 4.0 5 ------- null}
h -t 0.2152 -s 3 -d 0 -p tcp -e 1040 -c 1 -i 18 -a 1 -x {3.0 4.0 -1 ------- null}
r -t 0.21688 -s 1 -d 0 -p tcp -e 1040 -c 0 -i 12 -a 0 -x {1.0 2.0 3 ------- null}
+ -t 0.21688 -s 0 -d 2 -p tcp -e 1040 -c 0 -i 12 -a 0 -x {1.0 2.0 3 ------- null}
- -t 0.21688 -s 0 -d 2 -p tcp -e 1040 -c 0 -i 12 -a 0 -x {1.0 2.0 3 ------- null}
h -t 0.21688 -s 0 -d 2 -p tcp -e 1040 -c 0 -i 12 -a 0 -x {1.0 2.0 -1 ------- null}
r -t 0.21688 -s 3 -d 0 -p tcp -e 1040 -c 1 -i 14 -a 1 -x {3.0 4.0 3 ------- null}
+ -t 0.21688 -s 0 -d 4 -p tcp -e 1040 -c 1 -i 14 -a 1 -x {3.0 4.0 3 ------- null}
- -t 0.21688 -s 0 -d 4 -p tcp -e 1040 -c 1 -i 14 -a 1 -x {3.0 4.0 3 ------- null}
h -t 0.21688 -s 0 -d 4 -p tcp -e 1040 -c 1 -i 14 -a 1 -x {3.0 4.0 -1 ------- null}
- -t 0.22352 -s 1 -d 0 -p tcp -e 1040 -c 0 -i 17 -a 0 -x {1.0 2.0 6 ------- null}
h -t 0.22352 -s 1 -d 0 -p tcp -e 1040 -c 0 -i 17 -a 0 -x {1.0 2.0 -1 ------- null}
- -t 0.22352 -s 3 -d 0 -p tcp -e 1040 -c 1 -i 19 -a 1 -x {3.0 4.0 6 ------- null}
h -t 0.22352 -s 3 -d 0 -p tcp -e 1040 -c 1 -i 19 -a 1 -x {3.0 4.0 -1 ------- null}
r -t 0.2252 -s 1 -d 0 -p tcp -e 1040 -c 0 -i 13 -a 0 -x {1.0 2.0 4 ------- null}
+ -t 0.2252 -s 0 -d 2 -p tcp -e 1040 -c 0 -i 13 -a 0 -x {1.0 2.0 4 ------- null}
r -t 0.2252 -s 3 -d 0 -p tcp -e 1040 -c 1 -i 15 -a 1 -x {3.0 4.0 4 ------- null}
+ -t 0.2252 -s 0 -d 4 -p tcp -e 1040 -c 1 -i 15 -a 1 -x {3.0 4.0 4 ------- null}
- -t 0.2252 -s 0 -d 2 -p tcp -e 1040 -c 0 -i 13 -a 0 -x {1.0 2.0 4 ------- null}
h -t 0.2252 -s 0 -d 2 -p tcp -e 1040 -c 0 -i 13 -a 0 -x {1.0 2.0 -1 ------- null}
- -t 0.2252 -s 0 -d 4 -p tcp -e 1040 -c 1 -i 15 -a 1 -x {3.0 4.0 4 ------- null}
h -t 0.2252 -s 0 -d 4 -p tcp -e 1040 -c 1 -i 15 -a 1 -x {3.0 4.0 -1 ------- null}
r -t 0.23352 -s 1 -d 0 -p tcp -e 1040 -c 0 -i 16 -a 0 -x {1.0 2.0 5 ------- null}
+ -t 0.23352 -s 0 -d 2 -p tcp -e 1040 -c 0 -i 16 -a 0 -x {1.0 2.0 5 ------- null}
r -t 0.23352 -s 3 -d 0 -p tcp -e 1040 -c 1 -i 18 -a 1 -x {3.0 4.0 5 ------- null}
+ -t 0.23352 -s 0 -d 4 -p tcp -e 1040 -c 1 -i 18 -a 1 -x {3.0 4.0 5 ------- null}
- -t 0.23352 -s 0 -d 2 -p tcp -e 1040 -c 0 -i 16 -a 0 -x {1.0 2.0 5 ------- null}
h -t 0.23352 -s 0 -d 2 -p tcp -e 1040 -c 0 -i 16 -a 0 -x {1.0 2.0 -1 ------- null}
- -t 0.23352 -s 0 -d 4 -p tcp -e 1040 -c 1 -i 18 -a 1 -x {3.0 4.0 5 ------- null}
h -t 0.23352 -s 0 -d 4 -p tcp -e 1040 -c 1 -i 18 -a 1 -x {3.0 4.0 -1 ------- null}
r -t 0.2352 -s 0 -d 2 -p tcp -e 1040 -c 0 -i 12 -a 0 -x {1.0 2.0 3 ------- null}
+ -t 0.2352 -s 2 -d 0 -p ack -e 40 -c 0 -i 20 -a 0 -x {2.0 1.0 3 ------- null}
- -t 0.2352 -s 2 -d 0 -p ack -e 40 -c 0 -i 20 -a 0 -x {2.0 1.0 3 ------- null}
h -t 0.2352 -s 2 -d 0 -p ack -e 40 -c 0 -i 20 -a 0 -x {2.0 1.0 -1 ------- null}
r -t 0.2352 -s 0 -d 4 -p tcp -e 1040 -c 1 -i 14 -a 1 -x {3.0 4.0 3 ------- null}
+ -t 0.2352 -s 4 -d 0 -p ack -e 40 -c 1 -i 21 -a 1 -x {4.0 3.0 3 ------- null}
- -t 0.2352 -s 4 -d 0 -p ack -e 40 -c 1 -i 21 -a 1 -x {4.0 3.0 3 ------- null}
h -t 0.2352 -s 4 -d 0 -p ack -e 40 -c 1 -i 21 -a 1 -x {4.0 3.0 -1 ------- null}
r -t 0.24184 -s 1 -d 0 -p tcp -e 1040 -c 0 -i 17 -a 0 -x {1.0 2.0 6 ------- null}
+ -t 0.24184 -s 0 -d 2 -p tcp -e 1040 -c 0 -i 17 -a 0 -x {1.0 2.0 6 ------- null}
r -t 0.24184 -s 3 -d 0 -p tcp -e 1040 -c 1 -i 19 -a 1 -x {3.0 4.0 6 ------- null}
+ -t 0.24184 -s 0 -d 4 -p tcp -e 1040 -c 1 -i 19 -a 1 -x {3.0 4.0 6 ------- null}
- -t 0.24184 -s 0 -d 2 -p tcp -e 1040 -c 0 -i 17 -a 0 -x {1.0 2.0 6 ------- null}
h -t 0.24184 -s 0 -d 2 -p tcp -e 1040 -c 0 -i 17 -a 0 -x {1.0 2.0 -1 ------- null}
- -t 0.24184 -s 0 -d 4 -p tcp -e 1040 -c 1 -i 19 -a 1 -x {3.0 4.0 6 ------- null}
h -t 0.24184 -s 0 -d 4 -p tcp -e 1040 -c 1 -i 19 -a 1 -x {3.0 4.0 -1 ------- null}
r -t 0.24352 -s 0 -d 2 -p tcp -e 1040 -c 0 -i 13 -a 0 -x {1.0 2.0 4 ------- null}
+ -t 0.24352 -s 2 -d 0 -p ack -e 40 -c 0 -i 22 -a 0 -x {2.0 1.0 4 ------- null}
- -t 0.24352 -s 2 -d 0 -p ack -e 40 -c 0 -i 22 -a 0 -x {2.0 1.0 4 ------- null}
h -t 0.24352 -s 2 -d 0 -p ack -e 40 -c 0 -i 22 -a 0 -x {2.0 1.0 -1 ------- null}
r -t 0.24352 -s 0 -d 4 -p tcp -e 1040 -c 1 -i 15 -a 1 -x {3.0 4.0 4 ------- null}
+ -t 0.24352 -s 4 -d 0 -p ack -e 40 -c 1 -i 23 -a 1 -x {4.0 3.0 4 ------- null}
- -t 0.24352 -s 4 -d 0 -p ack -e 40 -c 1 -i 23 -a 1 -x {4.0 3.0 4 ------- null}
h -t 0.24352 -s 4 -d 0 -p ack -e 40 -c 1 -i 23 -a 1 -x {4.0 3.0 -1 ------- null}
r -t 0.24552 -s 2 -d 0 -p ack -e 40 -c 0 -i 20 -a 0 -x {2.0 1.0 3 ------- null}
+ -t 0.24552 -s 0 -d 1 -p ack -e 40 -c 0 -i 20 -a 0 -x {2.0 1.0 3 ------- null}
- -t 0.24552 -s 0 -d 1 -p ack -e 40 -c 0 -i 20 -a 0 -x {2.0 1.0 3 ------- null}
h -t 0.24552 -s 0 -d 1 -p ack -e 40 -c 0 -i 20 -a 0 -x {2.0 1.0 -1 ------- null}
r -t 0.24552 -s 4 -d 0 -p ack -e 40 -c 1 -i 21 -a 1 -x {4.0 3.0 3 ------- null}
+ -t 0.24552 -s 0 -d 3 -p ack -e 40 -c 1 -i 21 -a 1 -x {4.0 3.0 3 ------- null}
- -t 0.24552 -s 0 -d 3 -p ack -e 40 -c 1 -i 21 -a 1 -x {4.0 3.0 3 ------- null}
h -t 0.24552 -s 0 -d 3 -p ack -e 40 -c 1 -i 21 -a 1 -x {4.0 3.0 -1 ------- null}
r -t 0.25184 -s 0 -d 2 -p tcp -e 1040 -c 0 -i 16 -a 0 -x {1.0 2.0 5 ------- null}
+ -t 0.25184 -s 2 -d 0 -p ack -e 40 -c 0 -i 24 -a 0 -x {2.0 1.0 5 ------- null}
- -t 0.25184 -s 2 -d 0 -p ack -e 40 -c 0 -i 24 -a 0 -x {2.0 1.0 5 ------- null}
h -t 0.25184 -s 2 -d 0 -p ack -e 40 -c 0 -i 24 -a 0 -x {2.0 1.0 -1 ------- null}
r -t 0.25184 -s 0 -d 4 -p tcp -e 1040 -c 1 -i 18 -a 1 -x {3.0 4.0 5 ------- null}
+ -t 0.25184 -s 4 -d 0 -p ack -e 40 -c 1 -i 25 -a 1 -x {4.0 3.0 5 ------- null}
- -t 0.25184 -s 4 -d 0 -p ack -e 40 -c 1 -i 25 -a 1 -x {4.0 3.0 5 ------- null}
h -t 0.25184 -s 4 -d 0 -p ack -e 40 -c 1 -i 25 -a 1 -x {4.0 3.0 -1 ------- null}
r -t 0.25384 -s 2 -d 0 -p ack -e 40 -c 0 -i 22 -a 0 -x {2.0 1.0 4 ------- null}
+ -t 0.25384 -s 0 -d 1 -p ack -e 40 -c 0 -i 22 -a 0 -x {2.0 1.0 4 ------- null}
- -t 0.25384 -s 0 -d 1 -p ack -e 40 -c 0 -i 22 -a 0 -x {2.0 1.0 4 ------- null}
h -t 0.25384 -s 0 -d 1 -p ack -e 40 -c 0 -i 22 -a 0 -x {2.0 1.0 -1 ------- null}
r -t 0.25384 -s 4 -d 0 -p ack -e 40 -c 1 -i 23 -a 1 -x {4.0 3.0 4 ------- null}
+ -t 0.25384 -s 0 -d 3 -p ack -e 40 -c 1 -i 23 -a 1 -x {4.0 3.0 4 ------- null}
- -t 0.25384 -s 0 -d 3 -p ack -e 40 -c 1 -i 23 -a 1 -x {4.0 3.0 4 ------- null}
h -t 0.25384 -s 0 -d 3 -p ack -e 40 -c 1 -i 23 -a 1 -x {4.0 3.0 -1 ------- null}
r -t 0.25584 -s 0 -d 1 -p ack -e 40 -c 0 -i 20 -a 0 -x {2.0 1.0 3 ------- null}
+ -t 0.25584 -s 1 -d 0 -p tcp -e 1040 -c 0 -i 26 -a 0 -x {1.0 2.0 7 ------- null}
- -t 0.25584 -s 1 -d 0 -p tcp -e 1040 -c 0 -i 26 -a 0 -x {1.0 2.0 7 ------- null}
h -t 0.25584 -s 1 -d 0 -p tcp -e 1040 -c 0 -i 26 -a 0 -x {1.0 2.0 -1 ------- null}
+ -t 0.25584 -s 1 -d 0 -p tcp -e 1040 -c 0 -i 27 -a 0 -x {1.0 2.0 8 ------- null}
r -t 0.25584 -s 0 -d 3 -p ack -e 40 -c 1 -i 21 -a 1 -x {4.0 3.0 3 ------- null}
+ -t 0.25584 -s 3 -d 0 -p tcp -e 1040 -c 1 -i 28 -a 1 -x {3.0 4.0 7 ------- null}
- -t 0.25584 -s 3 -d 0 -p tcp -e 1040 -c 1 -i 28 -a 1 -x {3.0 4.0 7 ------- null}
h -t 0.25584 -s 3 -d 0 -p tcp -e 1040 -c 1 -i 28 -a 1 -x {3.0 4.0 -1 ------- null}
+ -t 0.25584 -s 3 -d 0 -p tcp -e 1040 -c 1 -i 29 -a 1 -x {3.0 4.0 8 ------- null}
r -t 0.26016 -s 0 -d 2 -p tcp -e 1040 -c 0 -i 17 -a 0 -x {1.0 2.0 6 ------- null}
+ -t 0.26016 -s 2 -d 0 -p ack -e 40 -c 0 -i 30 -a 0 -x {2.0 1.0 6 ------- null}
- -t 0.26016 -s 2 -d 0 -p ack -e 40 -c 0 -i 30 -a 0 -x {2.0 1.0 6 ------- null}
h -t 0.26016 -s 2 -d 0 -p ack -e 40 -c 0 -i 30 -a 0 -x {2.0 1.0 -1 ------- null}
r -t 0.26016 -s 0 -d 4 -p tcp -e 1040 -c 1 -i 19 -a 1 -x {3.0 4.0 6 ------- null}
+ -t 0.26016 -s 4 -d 0 -p ack -e 40 -c 1 -i 31 -a 1 -x {4.0 3.0 6 ------- null}
- -t 0.26016 -s 4 -d 0 -p ack -e 40 -c 1 -i 31 -a 1 -x {4.0 3.0 6 ------- null}
h -t 0.26016 -s 4 -d 0 -p ack -e 40 -c 1 -i 31 -a 1 -x {4.0 3.0 -1 ------- null}
r -t 0.26216 -s 2 -d 0 -p ack -e 40 -c 0 -i 24 -a 0 -x {2.0 1.0 5 ------- null}
+ -t 0.26216 -s 0 -d 1 -p ack -e 40 -c 0 -i 24 -a 0 -x {2.0 1.0 5 ------- null}
- -t 0.26216 -s 0 -d 1 -p ack -e 40 -c 0 -i 24 -a 0 -x {2.0 1.0 5 ------- null}
h -t 0.26216 -s 0 -d 1 -p ack -e 40 -c 0 -i 24 -a 0 -x {2.0 1.0 -1 ------- null}
r -t 0.26216 -s 4 -d 0 -p ack -e 40 -c 1 -i 25 -a 1 -x {4.0 3.0 5 ------- null}
+ -t 0.26216 -s 0 -d 3 -p ack -e 40 -c 1 -i 25 -a 1 -x {4.0 3.0 5 ------- null}
- -t 0.26216 -s 0 -d 3 -p ack -e 40 -c 1 -i 25 -a 1 -x {4.0 3.0 5 ------- null}
h -t 0.26216 -s 0 -d 3 -p ack -e 40 -c 1 -i 25 -a 1 -x {4.0 3.0 -1 ------- null}
r -t 0.26416 -s 0 -d 1 -p ack -e 40 -c 0 -i 22 -a 0 -x {2.0 1.0 4 ------- null}
+ -t 0.26416 -s 1 -d 0 -p tcp -e 1040 -c 0 -i 32 -a 0 -x {1.0 2.0 9 ------- null}
+ -t 0.26416 -s 1 -d 0 -p tcp -e 1040 -c 0 -i 33 -a 0 -x {1.0 2.0 10 ------- null}
r -t 0.26416 -s 0 -d 3 -p ack -e 40 -c 1 -i 23 -a 1 -x {4.0 3.0 4 ------- null}
+ -t 0.26416 -s 3 -d 0 -p tcp -e 1040 -c 1 -i 34 -a 1 -x {3.0 4.0 9 ------- null}
+ -t 0.26416 -s 3 -d 0 -p tcp -e 1040 -c 1 -i 35 -a 1 -x {3.0 4.0 10 ------- null}
- -t 0.26416 -s 1 -d 0 -p tcp -e 1040 -c 0 -i 27 -a 0 -x {1.0 2.0 8 ------- null}
h -t 0.26416 -s 1 -d 0 -p tcp -e 1040 -c 0 -i 27 -a 0 -x {1.0 2.0 -1 ------- null}
- -t 0.26416 -s 3 -d 0 -p tcp -e 1040 -c 1 -i 29 -a 1 -x {3.0 4.0 8 ------- null}
h -t 0.26416 -s 3 -d 0 -p tcp -e 1040 -c 1 -i 29 -a 1 -x {3.0 4.0 -1 ------- null}
r -t 0.27048 -s 2 -d 0 -p ack -e 40 -c 0 -i 30 -a 0 -x {2.0 1.0 6 ------- null}
+ -t 0.27048 -s 0 -d 1 -p ack -e 40 -c 0 -i 30 -a 0 -x {2.0 1.0 6 ------- null}
- -t 0.27048 -s 0 -d 1 -p ack -e 40 -c 0 -i 30 -a 0 -x {2.0 1.0 6 ------- null}
h -t 0.27048 -s 0 -d 1 -p ack -e 40 -c 0 -i 30 -a 0 -x {2.0 1.0 -1 ------- null}
r -t 0.27048 -s 4 -d 0 -p ack -e 40 -c 1 -i 31 -a 1 -x {4.0 3.0 6 ------- null}
+ -t 0.27048 -s 0 -d 3 -p ack -e 40 -c 1 -i 31 -a 1 -x {4.0 3.0 6 ------- null}
- -t 0.27048 -s 0 -d 3 -p ack -e 40 -c 1 -i 31 -a 1 -x {4.0 3.0 6 ------- null}
h -t 0.27048 -s 0 -d 3 -p ack -e 40 -c 1 -i 31 -a 1 -x {4.0 3.0 -1 ------- null}
r -t 0.27248 -s 0 -d 1 -p ack -e 40 -c 0 -i 24 -a 0 -x {2.0 1.0 5 ------- null}
+ -t 0.27248 -s 1 -d 0 -p tcp -e 1040 -c 0 -i 36 -a 0 -x {1.0 2.0 11 ------- null}
+ -t 0.27248 -s 1 -d 0 -p tcp -e 1040 -c 0 -i 37 -a 0 -x {1.0 2.0 12 ------- null}
r -t 0.27248 -s 0 -d 3 -p ack -e 40 -c 1 -i 25 -a 1 -x {4.0 3.0 5 ------- null}
+ -t 0.27248 -s 3 -d 0 -p tcp -e 1040 -c 1 -i 38 -a 1 -x {3.0 4.0 11 ------- null}
+ -t 0.27248 -s 3 -d 0 -p tcp -e 1040 -c 1 -i 39 -a 1 -x {3.0 4.0 12 ------- null}
- -t 0.27248 -s 1 -d 0 -p tcp -e 1040 -c 0 -i 32 -a 0 -x {1.0 2.0 9 ------- null}
h -t 0.27248 -s 1 -d 0 -p tcp -e 1040 -c 0 -i 32 -a 0 -x {1.0 2.0 -1 ------- null}
- -t 0.27248 -s 3 -d 0 -p tcp -e 1040 -c 1 -i 34 -a 1 -x {3.0 4.0 9 ------- null}
h -t 0.27248 -s 3 -d 0 -p tcp -e 1040 -c 1 -i 34 -a 1 -x {3.0 4.0 -1 ------- null}
r -t 0.27416 -s 1 -d 0 -p tcp -e 1040 -c 0 -i 26 -a 0 -x {1.0 2.0 7 ------- null}
+ -t 0.27416 -s 0 -d 2 -p tcp -e 1040 -c 0 -i 26 -a 0 -x {1.0 2.0 7 ------- null}
- -t 0.27416 -s 0 -d 2 -p tcp -e 1040 -c 0 -i 26 -a 0 -x {1.0 2.0 7 ------- null}
h -t 0.27416 -s 0 -d 2 -p tcp -e 1040 -c 0 -i 26 -a 0 -x {1.0 2.0 -1 ------- null}
r -t 0.27416 -s 3 -d 0 -p tcp -e 1040 -c 1 -i 28 -a 1 -x {3.0 4.0 7 ------- null}
+ -t 0.27416 -s 0 -d 4 -p tcp -e 1040 -c 1 -i 28 -a 1 -x {3.0 4.0 7 ------- null}
- -t 0.27416 -s 0 -d 4 -p tcp -e 1040 -c 1 -i 28 -a 1 -x {3.0 4.0 7 ------- null}
h -t 0.27416 -s 0 -d 4 -p tcp -e 1040 -c 1 -i 28 -a 1 -x {3.0 4.0 -1 ------- null}
r -t 0.2808 -s 0 -d 1 -p ack -e 40 -c 0 -i 30 -a 0 -x {2.0 1.0 6 ------- null}
+ -t 0.2808 -s 1 -d 0 -p tcp -e 1040 -c 0 -i 40 -a 0 -x {1.0 2.0 13 ------- null}
+ -t 0.2808 -s 1 -d 0 -p tcp -e 1040 -c 0 -i 41 -a 0 -x {1.0 2.0 14 ------- null}
r -t 0.2808 -s 0 -d 3 -p ack -e 40 -c 1 -i 31 -a 1 -x {4.0 3.0 6 ------- null}
+ -t 0.2808 -s 3 -d 0 -p tcp -e 1040 -c 1 -i 42 -a 1 -x {3.0 4.0 13 ------- null}
+ -t 0.2808 -s 3 -d 0 -p tcp -e 1040 -c 1 -i 43 -a 1 -x {3.0 4.0 14 ------- null}
- -t 0.2808 -s 1 -d 0 -p tcp -e 1040 -c 0 -i 33 -a 0 -x {1.0 2.0 10 ------- null}
h -t 0.2808 -s 1 -d 0 -p tcp -e 1040 -c 0 -i 33 -a 0 -x {1.0 2.0 -1 ------- null}
- -t 0.2808 -s 3 -d 0 -p tcp -e 1040 -c 1 -i 35 -a 1 -x {3.0 4.0 10 ------- null}
h -t 0.2808 -s 3 -d 0 -p tcp -e 1040 -c 1 -i 35 -a 1 -x {3.0 4.0 -1 ------- null}
r -t 0.28248 -s 1 -d 0 -p tcp -e 1040 -c 0 -i 27 -a 0 -x {1.0 2.0 8 ------- null}
+ -t 0.28248 -s 0 -d 2 -p tcp -e 1040 -c 0 -i 27 -a 0 -x {1.0 2.0 8 ------- null}
r -t 0.28248 -s 3 -d 0 -p tcp -e 1040 -c 1 -i 29 -a 1 -x {3.0 4.0 8 ------- null}
+ -t 0.28248 -s 0 -d 4 -p tcp -e 1040 -c 1 -i 29 -a 1 -x {3.0 4.0 8 ------- null}
- -t 0.28248 -s 0 -d 2 -p tcp -e 1040 -c 0 -i 27 -a 0 -x {1.0 2.0 8 ------- null}
h -t 0.28248 -s 0 -d 2 -p tcp -e 1040 -c 0 -i 27 -a 0 -x {1.0 2.0 -1 ------- null}
- -t 0.28248 -s 0 -d 4 -p tcp -e 1040 -c 1 -i 29 -a 1 -x {3.0 4.0 8 ------- null}
h -t 0.28248 -s 0 -d 4 -p tcp -e 1040 -c 1 -i 29 -a 1 -x {3.0 4.0 -1 ------- null}
- -t 0.28912 -s 1 -d 0 -p tcp -e 1040 -c 0 -i 36 -a 0 -x {1.0 2.0 11 ------- null}
h -t 0.28912 -s 1 -d 0 -p tcp -e 1040 -c 0 -i 36 -a 0 -x {1.0 2.0 -1 ------- null}
- -t 0.28912 -s 3 -d 0 -p tcp -e 1040 -c 1 -i 38 -a 1 -x {3.0 4.0 11 ------- null}
h -t 0.28912 -s 3 -d 0 -p tcp -e 1040 -c 1 -i 38 -a 1 -x {3.0 4.0 -1 ------- null}
r -t 0.2908 -s 1 -d 0 -p tcp -e 1040 -c 0 -i 32 -a 0 -x {1.0 2.0 9 ------- null}
+ -t 0.2908 -s 0 -d 2 -p tcp -e 1040 -c 0 -i 32 -a 0 -x {1.0 2.0 9 ------- null}
r -t 0.2908 -s 3 -d 0 -p tcp -e 1040 -c 1 -i 34 -a 1 -x {3.0 4.0 9 ------- null}
+ -t 0.2908 -s 0 -d 4 -p tcp -e 1040 -c 1 -i 34 -a 1 -x {3.0 4.0 9 ------- null}
- -t 0.2908 -s 0 -d 2 -p tcp -e 1040 -c 0 -i 32 -a 0 -x {1.0 2.0 9 ------- null}
h -t 0.2908 -s 0 -d 2 -p tcp -e 1040 -c 0 -i 32 -a 0 -x {1.0 2.0 -1 ------- null}
- -t 0.2908 -s 0 -d 4 -p tcp -e 1040 -c 1 -i 34 -a 1 -x {3.0 4.0 9 ------- null}
h -t 0.2908 -s 0 -d 4 -p tcp -e 1040 -c 1 -i 34 -a 1 -x {3.0 4.0 -1 ------- null}
r -t 0.29248 -s 0 -d 2 -p tcp -e 1040 -c 0 -i 26 -a 0 -x {1.0 2.0 7 ------- null}
+ -t 0.29248 -s 2 -d 0 -p ack -e 40 -c 0 -i 44 -a 0 -x {2.0 1.0 7 ------- null}
- -t 0.29248 -s 2 -d 0 -p ack -e 40 -c 0 -i 44 -a 0 -x {2.0 1.0 7 ------- null}
h -t 0.29248 -s 2 -d 0 -p ack -e 40 -c 0 -i 44 -a 0 -x {2.0 1.0 -1 ------- null}
r -t 0.29248 -s 0 -d 4 -p tcp -e 1040 -c 1 -i 28 -a 1 -x {3.0 4.0 7 ------- null}
+ -t 0.29248 -s 4 -d 0 -p ack -e 40 -c 1 -i 45 -a 1 -x {4.0 3.0 7 ------- null}
- -t 0.29248 -s 4 -d 0 -p ack -e 40 -c 1 -i 45 -a 1 -x {4.0 3.0 7 ------- null}
h -t 0.29248 -s 4 -d 0 -p ack -e 40 -c 1 -i 45 -a 1 -x {4.0 3.0 -1 ------- null}
- -t 0.29744 -s 1 -d 0 -p tcp -e 1040 -c 0 -i 37 -a 0 -x {1.0 2.0 12 ------- null}
h -t 0.29744 -s 1 -d 0 -p tcp -e 1040 -c 0 -i 37 -a 0 -x {1.0 2.0 -1 ------- null}
- -t 0.29744 -s 3 -d 0 -p tcp -e 1040 -c 1 -i 39 -a 1 -x {3.0 4.0 12 ------- null}
h -t 0.29744 -s 3 -d 0 -p tcp -e 1040 -c 1 -i 39 -a 1 -x {3.0 4.0 -1 ------- null}
r -t 0.29912 -s 1 -d 0 -p tcp -e 1040 -c 0 -i 33 -a 0 -x {1.0 2.0 10 ------- null}
+ -t 0.29912 -s 0 -d 2 -p tcp -e 1040 -c 0 -i 33 -a 0 -x {1.0 2.0 10 ------- null}
r -t 0.29912 -s 3 -d 0 -p tcp -e 1040 -c 1 -i 35 -a 1 -x {3.0 4.0 10 ------- null}
+ -t 0.29912 -s 0 -d 4 -p tcp -e 1040 -c 1 -i 35 -a 1 -x {3.0 4.0 10 ------- null}
- -t 0.29912 -s 0 -d 2 -p tcp -e 1040 -c 0 -i 33 -a 0 -x {1.0 2.0 10 ------- null}
h -t 0.29912 -s 0 -d 2 -p tcp -e 1040 -c 0 -i 33 -a 0 -x {1.0 2.0 -1 ------- null}
- -t 0.29912 -s 0 -d 4 -p tcp -e 1040 -c 1 -i 35 -a 1 -x {3.0 4.0 10 ------- null}
h -t 0.29912 -s 0 -d 4 -p tcp -e 1040 -c 1 -i 35 -a 1 -x {3.0 4.0 -1 ------- null}
r -t 0.3008 -s 0 -d 2 -p tcp -e 1040 -c 0 -i 27 -a 0 -x {1.0 2.0 8 ------- null}
+ -t 0.3008 -s 2 -d 0 -p ack -e 40 -c 0 -i 46 -a 0 -x {2.0 1.0 8 ------- null}
- -t 0.3008 -s 2 -d 0 -p ack -e 40 -c 0 -i 46 -a 0 -x {2.0 1.0 8 ------- null}
h -t 0.3008 -s 2 -d 0 -p ack -e 40 -c 0 -i 46 -a 0 -x {2.0 1.0 -1 ------- null}
r -t 0.3008 -s 0 -d 4 -p tcp -e 1040 -c 1 -i 29 -a 1 -x {3.0 4.0 8 ------- null}
+ -t 0.3008 -s 4 -d 0 -p ack -e 40 -c 1 -i 47 -a 1 -x {4.0 3.0 8 ------- null}
- -t 0.3008 -s 4 -d 0 -p ack -e 40 -c 1 -i 47 -a 1 -x {4.0 3.0 8 ------- null}
h -t 0.3008 -s 4 -d 0 -p ack -e 40 -c 1 -i 47 -a 1 -x {4.0 3.0 -1 ------- null}
r -t 0.3028 -s 2 -d 0 -p ack -e 40 -c 0 -i 44 -a 0 -x {2.0 1.0 7 ------- null}
+ -t 0.3028 -s 0 -d 1 -p ack -e 40 -c 0 -i 44 -a 0 -x {2.0 1.0 7 ------- null}
- -t 0.3028 -s 0 -d 1 -p ack -e 40 -c 0 -i 44 -a 0 -x {2.0 1.0 7 ------- null}
h -t 0.3028 -s 0 -d 1 -p ack -e 40 -c 0 -i 44 -a 0 -x {2.0 1.0 -1 ------- null}
r -t 0.3028 -s 4 -d 0 -p ack -e 40 -c 1 -i 45 -a 1 -x {4.0 3.0 7 ------- null}
+ -t 0.3028 -s 0 -d 3 -p ack -e 40 -c 1 -i 45 -a 1 -x {4.0 3.0 7 ------- null}
- -t 0.3028 -s 0 -d 3 -p ack -e 40 -c 1 -i 45 -a 1 -x {4.0 3.0 7 ------- null}
h -t 0.3028 -s 0 -d 3 -p ack -e 40 -c 1 -i 45 -a 1 -x {4.0 3.0 -1 ------- null}
- -t 0.30576 -s 1 -d 0 -p tcp -e 1040 -c 0 -i 40 -a 0 -x {1.0 2.0 13 ------- null}
h -t 0.30576 -s 1 -d 0 -p tcp -e 1040 -c 0 -i 40 -a 0 -x {1.0 2.0 -1 ------- null}
- -t 0.30576 -s 3 -d 0 -p tcp -e 1040 -c 1 -i 42 -a 1 -x {3.0 4.0 13 ------- null}
h -t 0.30576 -s 3 -d 0 -p tcp -e 1040 -c 1 -i 42 -a 1 -x {3.0 4.0 -1 ------- null}
r -t 0.30744 -s 1 -d 0 -p tcp -e 1040 -c 0 -i 36 -a 0 -x {1.0 2.0 11 ------- null}
+ -t 0.30744 -s 0 -d 2 -p tcp -e 1040 -c 0 -i 36 -a 0 -x {1.0 2.0 11 ------- null}
r -t 0.30744 -s 3 -d 0 -p tcp -e 1040 -c 1 -i 38 -a 1 -x {3.0 4.0 11 ------- null}
+ -t 0.30744 -s 0 -d 4 -p tcp -e 1040 -c 1 -i 38 -a 1 -x {3.0 4.0 11 ------- null}
- -t 0.30744 -s 0 -d 2 -p tcp -e 1040 -c 0 -i 36 -a 0 -x {1.0 2.0 11 ------- null}
h -t 0.30744 -s 0 -d 2 -p tcp -e 1040 -c 0 -i 36 -a 0 -x {1.0 2.0 -1 ------- null}
- -t 0.30744 -s 0 -d 4 -p tcp -e 1040 -c 1 -i 38 -a 1 -x {3.0 4.0 11 ------- null}
h -t 0.30744 -s 0 -d 4 -p tcp -e 1040 -c 1 -i 38 -a 1 -x {3.0 4.0 -1 ------- null}
r -t 0.30912 -s 0 -d 2 -p tcp -e 1040 -c 0 -i 32 -a 0 -x {1.0 2.0 9 ------- null}
+ -t 0.30912 -s 2 -d 0 -p ack -e 40 -c 0 -i 48 -a 0 -x {2.0 1.0 9 ------- null}
- -t 0.30912 -s 2 -d 0 -p ack -e 40 -c 0 -i 48 -a 0 -x {2.0 1.0 9 ------- null}
h -t 0.30912 -s 2 -d 0 -p ack -e 40 -c 0 -i 48 -a 0 -x {2.0 1.0 -1 ------- null}
r -t 0.30912 -s 0 -d 4 -p tcp -e 1040 -c 1 -i 34 -a 1 -x {3.0 4.0 9 ------- null}
+ -t 0.30912 -s 4 -d 0 -p ack -e 40 -c 1 -i 49 -a 1 -x {4.0 3.0 9 ------- null}
- -t 0.30912 -s 4 -d 0 -p ack -e 40 -c 1 -i 49 -a 1 -x {4.0 3.0 9 ------- null}
h -t 0.30912 -s 4 -d 0 -p ack -e 40 -c 1 -i 49 -a 1 -x {4.0 3.0 -1 ------- null}
r -t 0.31112 -s 2 -d 0 -p ack -e 40 -c 0 -i 46 -a 0 -x {2.0 1.0 8 ------- null}
+ -t 0.31112 -s 0 -d 1 -p ack -e 40 -c 0 -i 46 -a 0 -x {2.0 1.0 8 ------- null}
- -t 0.31112 -s 0 -d 1 -p ack -e 40 -c 0 -i 46 -a 0 -x {2.0 1.0 8 ------- null}
h -t 0.31112 -s 0 -d 1 -p ack -e 40 -c 0 -i 46 -a 0 -x {2.0 1.0 -1 ------- null}
r -t 0.31112 -s 4 -d 0 -p ack -e 40 -c 1 -i 47 -a 1 -x {4.0 3.0 8 ------- null}
+ -t 0.31112 -s 0 -d 3 -p ack -e 40 -c 1 -i 47 -a 1 -x {4.0 3.0 8 ------- null}
- -t 0.31112 -s 0 -d 3 -p ack -e 40 -c 1 -i 47 -a 1 -x {4.0 3.0 8 ------- null}
h -t 0.31112 -s 0 -d 3 -p ack -e 40 -c 1 -i 47 -a 1 -x {4.0 3.0 -1 ------- null}
r -t 0.31312 -s 0 -d 1 -p ack -e 40 -c 0 -i 44 -a 0 -x {2.0 1.0 7 ------- null}
+ -t 0.31312 -s 1 -d 0 -p tcp -e 1040 -c 0 -i 50 -a 0 -x {1.0 2.0 15 ------- null}
+ -t 0.31312 -s 1 -d 0 -p tcp -e 1040 -c 0 -i 51 -a 0 -x {1.0 2.0 16 ------- null}
r -t 0.31312 -s 0 -d 3 -p ack -e 40 -c 1 -i 45 -a 1 -x {4.0 3.0 7 ------- null}
+ -t 0.31312 -s 3 -d 0 -p tcp -e 1040 -c 1 -i 52 -a 1 -x {3.0 4.0 15 ------- null}
+ -t 0.31312 -s 3 -d 0 -p tcp -e 1040 -c 1 -i 53 -a 1 -x {3.0 4.0 16 ------- null}
- -t 0.31408 -s 1 -d 0 -p tcp -e 1040 -c 0 -i 41 -a 0 -x {1.0 2.0 14 ------- null}
h -t 0.31408 -s 1 -d 0 -p tcp -e 1040 -c 0 -i 41 -a 0 -x {1.0 2.0 -1 ------- null}
- -t 0.31408 -s 3 -d 0 -p tcp -e 1040 -c 1 -i 43 -a 1 -x {3.0 4.0 14 ------- null}
h -t 0.31408 -s 3 -d 0 -p tcp -e 1040 -c 1 -i 43 -a 1 -x {3.0 4.0 -1 ------- null}
r -t 0.31576 -s 1 -d 0 -p tcp -e 1040 -c 0 -i 37 -a 0 -x {1.0 2.0 12 ------- null}
+ -t 0.31576 -s 0 -d 2 -p tcp -e 1040 -c 0 -i 37 -a 0 -x {1.0 2.0 12 ------- null}
r -t 0.31576 -s 3 -d 0 -p tcp -e 1040 -c 1 -i 39 -a 1 -x {3.0 4.0 12 ------- null}